TD-DFT calculation                                                      
Freq      RB3LYP                                                      6-31G(d)            
Number of atoms                            I               12
Info1-9                                    I   N=           9
           7           6           0           0           0         100
           6          18        -502
Full Title                                 C   N=           2
TD-DFT calculation      
Route                                      C   N=           7
# Geom=AllCheck Guess=Read SCRF=Check GenChk B3LYP/6-31G(d) 
Symm=None Freq=(NoRaman)
Charge                                     I                0
Multiplicity                               I                1
Number of electrons                        I               42
Number of alpha electrons                  I               21
Number of beta electrons                   I               21
Number of basis functions                  I              102
Number of independent functions            I              102
Number of point charges in /Mol/           I                0
Number of translation vectors              I                0
Atomic numbers                             I   N=          12
           6           6           6           6           6           6
           1           1           1           1           1           1
Nuclear charges                            R   N=          12
  6.00000000E+00  6.00000000E+00  6.00000000E+00  6.00000000E+00  6.00000000E+00
  6.00000000E+00  1.00000000E+00  1.00000000E+00  1.00000000E+00  1.00000000E+00
  1.00000000E+00  1.00000000E+00
Current cartesian coordinates              R   N=          36
  2.61747224E+00 -4.19278157E-01  9.67895891E-03  9.59414203E-01 -2.47301625E+00
 -1.69991130E-02 -1.64829520E+00 -2.06382130E+00 -2.55969537E-02 -2.59792079E+00
  3.99008208E-01 -8.19238357E-03 -9.39859849E-01  2.45272374E+00  1.82752137E-02
  1.66786791E+00  2.04353598E+00  2.76853349E-02  4.64690264E+00 -7.37778275E-01
  1.65573224E-02  1.69836297E+00 -4.38973031E+00 -3.02718813E-02 -2.93866519E+00
 -3.66211904E+00 -4.67103995E-02 -4.62735162E+00  7.17491165E-01 -1.52102212E-02
 -1.67879056E+00  4.36944513E+00  3.24051399E-02  2.95823415E+00  3.64184074E+00
  4.81110720E-02
Number of symbols in /Mol/                 I                0
Force Field                                I                0
Atom Types                                 C   N=          12
                                                            
                                                            
                        
Int Atom Types                             I   N=          12
           0           0           0           0           0           0
           0           0           0           0           0           0
MM charges                                 R   N=          12
  0.00000000E+00  0.00000000E+00  0.00000000E+00  0.00000000E+00  0.00000000E+00
  0.00000000E+00  0.00000000E+00  0.00000000E+00  0.00000000E+00  0.00000000E+00
  0.00000000E+00  0.00000000E+00
Integer atomic weights                     I   N=          12
          12          12          12          12          12          12
           1           1           1           1           1           1
Real atomic weights                        R   N=          12
  1.20000000E+01  1.20000000E+01  1.20000000E+01  1.20000000E+01  1.20000000E+01
  1.20000000E+01  1.00782504E+00  1.00782504E+00  1.00782504E+00  1.00782504E+00
  1.00782504E+00  1.00782504E+00
Atom fragment info                         I   N=          12
           0           0           0           0           0           0
           0           0           0           0           0           0
Atom residue num                           I   N=          12
           0           0           0           0           0           0
           0           0           0           0           0           0
Nuclear spins                              I   N=          12
           0           0           0           0           0           0
           1           1           1           1           1           1
Nuclear ZEff                               R   N=          12
 -3.60000000E+00 -3.60000000E+00 -3.60000000E+00 -3.60000000E+00 -3.60000000E+00
 -3.60000000E+00 -1.00000000E+00 -1.00000000E+00 -1.00000000E+00 -1.00000000E+00
 -1.00000000E+00 -1.00000000E+00
Nuclear ZNuc                               R   N=          12
  6.00000000E+00  6.00000000E+00  6.00000000E+00  6.00000000E+00  6.00000000E+00
  6.00000000E+00  1.00000000E+00  1.00000000E+00  1.00000000E+00  1.00000000E+00
  1.00000000E+00  1.00000000E+00
Nuclear QMom                               R   N=          12
  0.00000000E+00  0.00000000E+00  0.00000000E+00  0.00000000E+00  0.00000000E+00
  0.00000000E+00  0.00000000E+00  0.00000000E+00  0.00000000E+00  0.00000000E+00
  0.00000000E+00  0.00000000E+00
Nuclear GFac                               R   N=          12
  0.00000000E+00  0.00000000E+00  0.00000000E+00  0.00000000E+00  0.00000000E+00
  0.00000000E+00  2.79284600E+00  2.79284600E+00  2.79284600E+00  2.79284600E+00
  2.79284600E+00  2.79284600E+00
MicOpt                                     I   N=          12
          -1          -1          -1          -1          -1          -1
          -1          -1          -1          -1          -1          -1
Number of residues                         I                0
Number of secondary structures             I                0
Redundant internal dimensions              I   N=           4
          54          12          18          24
Redundant internal coordinate indices      I   N=         216
           1           2           0           0           1           6
           0           0           1           7           0           0
           2           3           0           0           2           8
           0           0           3           4           0           0
           3           9           0           0           4           5
           0           0           4          10           0           0
           5           6           0           0           5          11
           0           0           6          12           0           0
           2           1           6           0           2           1
           7           0           6           1           7           0
           1           2           3           0           1           2
           8           0           3           2           8           0
           2           3           4           0           2           3
           9           0           4           3           9           0
           3           4           5           0           3           4
          10           0           5           4          10           0
           4           5           6           0           4           5
          11           0           6           5          11           0
           1           6           5           0           1           6
          12           0           5           6          12           0
           6           1           2           3           6           1
           2           8           7           1           2           3
           7           1           2           8           2           1
           6           5           2           1           6          12
           7           1           6           5           7           1
           6          12           1           2           3           4
           1           2           3           9           8           2
           3           4           8           2           3           9
           2           3           4           5           2           3
           4          10           9           3           4           5
           9           3           4          10           3           4
           5           6           3           4           5          11
          10           4           5           6          10           4
           5          11           4           5           6           1
           4           5           6          12          11           5
           6           1          11           5           6          12
Redundant internal coordinates             R   N=          54
  2.63964170E+00  2.63960719E+00  2.05428269E+00  2.63963308E+00  2.05426733E+00
  2.63962514E+00  2.05427752E+00  2.63962386E+00  2.05428093E+00  2.63965286E+00
  2.05427338E+00  2.05427369E+00  2.09441961E+00  2.09433035E+00  2.09443534E+00
  2.09435216E+00  2.09445856E+00  2.09437450E+00  2.09442069E+00  2.09435394E+00
  2.09441057E+00  2.09440605E+00  2.09443359E+00  2.09434567E+00  2.09436527E+00
  2.09446491E+00  2.09435503E+00  2.09440674E+00  2.09442069E+00  2.09435776E+00
 -3.19274340E-05 -3.14117595E+00  3.14148722E+00  3.43194412E-04 -3.23315657E-04
 -3.14140366E+00  3.14134285E+00  2.62500367E-04  2.95193906E-04  3.14139508E+00
  3.14143924E+00 -6.46179672E-04 -2.03218846E-04  3.14140891E+00 -3.14130309E+00
  3.09041169E-04 -1.52024630E-04 -3.14126437E+00  3.14142115E+00  3.08806464E-04
  4.15287933E-04  3.14149566E+00  3.14152766E+00 -5.77275050E-04
ZRed-IntVec                                I   N=          54
           0           0           0           0           0           0
           0           0           0           0           0           0
           0           0           0           0           0           0
           0           0           0           0           0           0
           0           0           0           0           0           0
           0           0           0           0           0           0
           0           0           0           0           0           0
           0           0           0           0           0           0
           0           0           0           0           0           0
ZRed-FPVec                                 R   N=          54
  0.00000000E+00  0.00000000E+00  0.00000000E+00  0.00000000E+00  0.00000000E+00
  0.00000000E+00  0.00000000E+00  0.00000000E+00  0.00000000E+00  0.00000000E+00
  0.00000000E+00  0.00000000E+00  0.00000000E+00  0.00000000E+00  0.00000000E+00
  0.00000000E+00  0.00000000E+00  0.00000000E+00  0.00000000E+00  0.00000000E+00
  0.00000000E+00  0.00000000E+00  0.00000000E+00  0.00000000E+00  0.00000000E+00
  0.00000000E+00  0.00000000E+00  0.00000000E+00  0.00000000E+00  0.00000000E+00
  0.00000000E+00  0.00000000E+00  0.00000000E+00  0.00000000E+00  0.00000000E+00
  0.00000000E+00  0.00000000E+00  0.00000000E+00  0.00000000E+00  0.00000000E+00
  0.00000000E+00  0.00000000E+00  0.00000000E+00  0.00000000E+00  0.00000000E+00
  0.00000000E+00  0.00000000E+00  0.00000000E+00  0.00000000E+00  0.00000000E+00
  0.00000000E+00  0.00000000E+00  0.00000000E+00  0.00000000E+00
ZRed-Constraint1                           R   N=          54
  2.63964170E+00  2.63960719E+00  2.05428269E+00  2.63963308E+00  2.05426733E+00
  2.63962514E+00  2.05427752E+00  2.63962386E+00  2.05428093E+00  2.63965286E+00
  2.05427338E+00  2.05427369E+00  2.09441961E+00  2.09433035E+00  2.09443534E+00
  2.09435216E+00  2.09445856E+00  2.09437450E+00  2.09442069E+00  2.09435394E+00
  2.09441057E+00  2.09440605E+00  2.09443359E+00  2.09434567E+00  2.09436527E+00
  2.09446491E+00  2.09435503E+00  2.09440674E+00  2.09442069E+00  2.09435776E+00
 -3.19274340E-05 -3.14117595E+00  3.14148722E+00  3.43194412E-04 -3.23315657E-04
 -3.14140366E+00  3.14134285E+00  2.62500367E-04  2.95193906E-04  3.14139508E+00
  3.14143924E+00 -6.46179672E-04 -2.03218846E-04  3.14140891E+00 -3.14130309E+00
  3.09041169E-04 -1.52024630E-04 -3.14126437E+00  3.14142115E+00  3.08806464E-04
  4.15287933E-04  3.14149566E+00  3.14152766E+00 -5.77275050E-04
ZRed-Constraint2                           R   N=          54
  2.63587059E+00  2.63562121E+00  2.05365479E+00  2.63598540E+00  2.05354928E+00
  2.63564779E+00  2.05372136E+00  2.63579928E+00  2.05352318E+00  2.63602543E+00
  2.05356310E+00  2.05362495E+00  2.09444044E+00  2.09423281E+00  2.09451188E+00
  2.09433323E+00  2.09455229E+00  2.09429975E+00  2.09443247E+00  2.09437446E+00
  2.09437837E+00  2.09439292E+00  2.09453185E+00  2.09426053E+00  2.09439725E+00
  2.09454136E+00  2.09424668E+00  2.09437197E+00  2.09439906E+00  2.09441417E+00
  4.89139893E-04 -3.14083524E+00 -3.14045354E+00  1.40738613E-03  1.36564736E-03
 -3.14071615E+00 -3.14087709E+00  2.26418874E-04 -1.61530415E-03  3.14006832E+00
  3.13970912E+00 -1.79256316E-03  8.86447763E-04 -3.14079381E+00 -3.14079718E+00
  7.07866253E-04  9.68436665E-04 -3.14080906E+00 -3.14053662E+00  8.71187189E-04
 -2.09453817E-03  3.13998727E+00  3.13968293E+00 -1.42057264E-03
Number of contracted shells                I               36
Number of primitive shells                 I               90
Pure/Cartesian d shells                    I                1
Pure/Cartesian f shells                    I                0
Highest angular momentum                   I                2
Largest degree of contraction              I                6
Shell types                                I   N=          36
           0          -1          -1           2           0          -1
          -1           2           0          -1          -1           2
           0          -1          -1           2           0          -1
          -1           2           0          -1          -1           2
           0           0           0           0           0           0
           0           0           0           0           0           0
Number of primitives per shell             I   N=          36
           6           3           1           1           6           3
           1           1           6           3           1           1
           6           3           1           1           6           3
           1           1           6           3           1           1
           3           1           3           1           3           1
           3           1           3           1           3           1
Shell to atom map                          I   N=          36
           1           1           1           1           2           2
           2           2           3           3           3           3
           4           4           4           4           5           5
           5           5           6           6           6           6
           7           7           8           8           9           9
          10          10          11          11          12          12
Primitive exponents                        R   N=          90
  3.04752488E+03  4.57369518E+02  1.03948685E+02  2.92101553E+01  9.28666296E+00
  3.16392696E+00  7.86827235E+00  1.88128854E+00  5.44249258E-01  1.68714478E-01
  8.00000000E-01  3.04752488E+03  4.57369518E+02  1.03948685E+02  2.92101553E+01
  9.28666296E+00  3.16392696E+00  7.86827235E+00  1.88128854E+00  5.44249258E-01
  1.68714478E-01  8.00000000E-01  3.04752488E+03  4.57369518E+02  1.03948685E+02
  2.92101553E+01  9.28666296E+00  3.16392696E+00  7.86827235E+00  1.88128854E+00
  5.44249258E-01  1.68714478E-01  8.00000000E-01  3.04752488E+03  4.57369518E+02
  1.03948685E+02  2.92101553E+01  9.28666296E+00  3.16392696E+00  7.86827235E+00
  1.88128854E+00  5.44249258E-01  1.68714478E-01  8.00000000E-01  3.04752488E+03
  4.57369518E+02  1.03948685E+02  2.92101553E+01  9.28666296E+00  3.16392696E+00
  7.86827235E+00  1.88128854E+00  5.44249258E-01  1.68714478E-01  8.00000000E-01
  3.04752488E+03  4.57369518E+02  1.03948685E+02  2.92101553E+01  9.28666296E+00
  3.16392696E+00  7.86827235E+00  1.88128854E+00  5.44249258E-01  1.68714478E-01
  8.00000000E-01  1.87311370E+01  2.82539436E+00  6.40121692E-01  1.61277759E-01
  1.87311370E+01  2.82539436E+00  6.40121692E-01  1.61277759E-01  1.87311370E+01
  2.82539436E+00  6.40121692E-01  1.61277759E-01  1.87311370E+01  2.82539436E+00
  6.40121692E-01  1.61277759E-01  1.87311370E+01  2.82539436E+00  6.40121692E-01
  1.61277759E-01  1.87311370E+01  2.82539436E+00  6.40121692E-01  1.61277759E-01
Contraction coefficients                   R   N=          90
  1.83473713E-03  1.40373228E-02  6.88426223E-02  2.32184443E-01  4.67941348E-01
  3.62311985E-01 -1.19332420E-01 -1.60854152E-01  1.14345644E+00  1.00000000E+00
  1.00000000E+00  1.83473713E-03  1.40373228E-02  6.88426223E-02  2.32184443E-01
  4.67941348E-01  3.62311985E-01 -1.19332420E-01 -1.60854152E-01  1.14345644E+00
  1.00000000E+00  1.00000000E+00  1.83473713E-03  1.40373228E-02  6.88426223E-02
  2.32184443E-01  4.67941348E-01  3.62311985E-01 -1.19332420E-01 -1.60854152E-01
  1.14345644E+00  1.00000000E+00  1.00000000E+00  1.83473713E-03  1.40373228E-02
  6.88426223E-02  2.32184443E-01  4.67941348E-01  3.62311985E-01 -1.19332420E-01
 -1.60854152E-01  1.14345644E+00  1.00000000E+00  1.00000000E+00  1.83473713E-03
  1.40373228E-02  6.88426223E-02  2.32184443E-01  4.67941348E-01  3.62311985E-01
 -1.19332420E-01 -1.60854152E-01  1.14345644E+00  1.00000000E+00  1.00000000E+00
  1.83473713E-03  1.40373228E-02  6.88426223E-02  2.32184443E-01  4.67941348E-01
  3.62311985E-01 -1.19332420E-01 -1.60854152E-01  1.14345644E+00  1.00000000E+00
  1.00000000E+00  3.34946043E-02  2.34726953E-01  8.13757326E-01  1.00000000E+00
  3.34946043E-02  2.34726953E-01  8.13757326E-01  1.00000000E+00  3.34946043E-02
  2.34726953E-01  8.13757326E-01  1.00000000E+00  3.34946043E-02  2.34726953E-01
  8.13757326E-01  1.00000000E+00  3.34946043E-02  2.34726953E-01  8.13757326E-01
  1.00000000E+00  3.34946043E-02  2.34726953E-01  8.13757326E-01  1.00000000E+00
P(S=P) Contraction coefficients            R   N=          90
  0.00000000E+00  0.00000000E+00  0.00000000E+00  0.00000000E+00  0.00000000E+00
  0.00000000E+00  6.89990666E-02  3.16423961E-01  7.44308291E-01  1.00000000E+00
  0.00000000E+00  0.00000000E+00  0.00000000E+00  0.00000000E+00  0.00000000E+00
  0.00000000E+00  0.00000000E+00  6.89990666E-02  3.16423961E-01  7.44308291E-01
  1.00000000E+00  0.00000000E+00  0.00000000E+00  0.00000000E+00  0.00000000E+00
  0.00000000E+00  0.00000000E+00  0.00000000E+00  6.89990666E-02  3.16423961E-01
  7.44308291E-01  1.00000000E+00  0.00000000E+00  0.00000000E+00  0.00000000E+00
  0.00000000E+00  0.00000000E+00  0.00000000E+00  0.00000000E+00  6.89990666E-02
  3.16423961E-01  7.44308291E-01  1.00000000E+00  0.00000000E+00  0.00000000E+00
  0.00000000E+00  0.00000000E+00  0.00000000E+00  0.00000000E+00  0.00000000E+00
  6.89990666E-02  3.16423961E-01  7.44308291E-01  1.00000000E+00  0.00000000E+00
  0.00000000E+00  0.00000000E+00  0.00000000E+00  0.00000000E+00  0.00000000E+00
  0.00000000E+00  6.89990666E-02  3.16423961E-01  7.44308291E-01  1.00000000E+00
  0.00000000E+00  0.00000000E+00  0.00000000E+00  0.00000000E+00  0.00000000E+00
  0.00000000E+00  0.00000000E+00  0.00000000E+00  0.00000000E+00  0.00000000E+00
  0.00000000E+00  0.00000000E+00  0.00000000E+00  0.00000000E+00  0.00000000E+00
  0.00000000E+00  0.00000000E+00  0.00000000E+00  0.00000000E+00  0.00000000E+00
  0.00000000E+00  0.00000000E+00  0.00000000E+00  0.00000000E+00  0.00000000E+00
Coordinates of each shell                  R   N=         108
  2.61747224E+00 -4.19278157E-01  9.67895891E-03  2.61747224E+00 -4.19278157E-01
  9.67895891E-03  2.61747224E+00 -4.19278157E-01  9.67895891E-03  2.61747224E+00
 -4.19278157E-01  9.67895891E-03  9.59414203E-01 -2.47301625E+00 -1.69991130E-02
  9.59414203E-01 -2.47301625E+00 -1.69991130E-02  9.59414203E-01 -2.47301625E+00
 -1.69991130E-02  9.59414203E-01 -2.47301625E+00 -1.69991130E-02 -1.64829520E+00
 -2.06382130E+00 -2.55969537E-02 -1.64829520E+00 -2.06382130E+00 -2.55969537E-02
 -1.64829520E+00 -2.06382130E+00 -2.55969537E-02 -1.64829520E+00 -2.06382130E+00
 -2.55969537E-02 -2.59792079E+00  3.99008208E-01 -8.19238357E-03 -2.59792079E+00
  3.99008208E-01 -8.19238357E-03 -2.59792079E+00  3.99008208E-01 -8.19238357E-03
 -2.59792079E+00  3.99008208E-01 -8.19238357E-03 -9.39859849E-01  2.45272374E+00
  1.82752137E-02 -9.39859849E-01  2.45272374E+00  1.82752137E-02 -9.39859849E-01
  2.45272374E+00  1.82752137E-02 -9.39859849E-01  2.45272374E+00  1.82752137E-02
  1.66786791E+00  2.04353598E+00  2.76853349E-02  1.66786791E+00  2.04353598E+00
  2.76853349E-02  1.66786791E+00  2.04353598E+00  2.76853349E-02  1.66786791E+00
  2.04353598E+00  2.76853349E-02  4.64690264E+00 -7.37778275E-01  1.65573224E-02
  4.64690264E+00 -7.37778275E-01  1.65573224E-02  1.69836297E+00 -4.38973031E+00
 -3.02718813E-02  1.69836297E+00 -4.38973031E+00 -3.02718813E-02 -2.93866519E+00
 -3.66211904E+00 -4.67103995E-02 -2.93866519E+00 -3.66211904E+00 -4.67103995E-02
 -4.62735162E+00  7.17491165E-01 -1.52102212E-02 -4.62735162E+00  7.17491165E-01
 -1.52102212E-02 -1.67879056E+00  4.36944513E+00  3.24051399E-02 -1.67879056E+00
  4.36944513E+00  3.24051399E-02  2.95823415E+00  3.64184074E+00  4.81110720E-02
  2.95823415E+00  3.64184074E+00  4.81110720E-02
Num ILSW                                   I              100
ILSW                                       I   N=         100
           0           1           0           0           2           0
           0           0           0           0         402          -1
           5           0           0           0           2           0
           0           0           1           0           1           0
           1           1           0           0           0           0
           0           0      100000           0          -1           0
           0           0           0           0           0           0
           0           0           0           1           0           0
           0 -2000000000           1           0           0           0
           0           0           4          52           0           0
           0           0           5           0           0           0
           0           0           0           0           0           1
           0           0           0           0           0           0
           0           0           0           0           0           0
           0           0           0           0           0           0
           0           0           0           0           0           0
           0           0           0           0
Num RLSW                                   I               52
RLSW                                       R   N=          52
  8.00000000E-01  7.20000000E-01  1.00000000E+00  8.10000000E-01  2.00000000E-01
  0.00000000E+00  0.00000000E+00  1.00000000E+00  0.00000000E+00  0.00000000E+00
  0.00000000E+00  0.00000000E+00  1.00000000E+00  0.00000000E+00  0.00000000E+00
  0.00000000E+00  0.00000000E+00  1.00000000E+00  0.00000000E+00  0.00000000E+00
  0.00000000E+00  0.00000000E+00  1.00000000E+00  0.00000000E+00  0.00000000E+00
  0.00000000E+00  0.00000000E+00  1.00000000E+00  0.00000000E+00  0.00000000E+00
  0.00000000E+00  0.00000000E+00  1.00000000E+00  0.00000000E+00  0.00000000E+00
  0.00000000E+00  0.00000000E+00  0.00000000E+00  1.00000000E+00  1.00000000E+00
  0.00000000E+00  1.00000000E+00  0.00000000E+00  0.00000000E+00  0.00000000E+00
  0.00000000E+00  0.00000000E+00  0.00000000E+00  0.00000000E+00  0.00000000E+00
  0.00000000E+00  0.00000000E+00
MxBond                                     I                3
NBond                                      I   N=          12
           3           3           3           3           3           3
           1           1           1           1           1           1
IBond                                      I   N=          36
           2           6           7           1           3           8
           2           4           9           3           5          10
           4           6          11           1           5          12
           1           0           0           2           0           0
           3           0           0           4           0           0
           5           0           0           6           0           0
RBond                                      R   N=          36
  1.50000000E+00  1.50000000E+00  1.00000000E+00  1.50000000E+00  1.50000000E+00
  1.00000000E+00  1.50000000E+00  1.50000000E+00  1.00000000E+00  1.50000000E+00
  1.50000000E+00  1.00000000E+00  1.50000000E+00  1.50000000E+00  1.00000000E+00
  1.50000000E+00  1.50000000E+00  1.00000000E+00  1.00000000E+00  0.00000000E+00
  0.00000000E+00  1.00000000E+00  0.00000000E+00  0.00000000E+00  1.00000000E+00
  0.00000000E+00  0.00000000E+00  1.00000000E+00  0.00000000E+00  0.00000000E+00
  1.00000000E+00  0.00000000E+00  0.00000000E+00  1.00000000E+00  0.00000000E+00
  0.00000000E+00
Virial Ratio                               R      2.010118722531438E+00
SCF Energy                                 R     -2.322486494088952E+02
Total Energy                               R     -2.322486494088952E+02
RMS Force                                  R      7.011042808727107E-05
RMS Density                                R      2.705294978294235E-10
NImag                                      I                0
Job Status                                 I                1
Nuclear derivative order                   I                2
External E-field                           R   N=          35
  0.00000000E+00  0.00000000E+00  0.00000000E+00  0.00000000E+00  0.00000000E+00
  0.00000000E+00  0.00000000E+00  0.00000000E+00  0.00000000E+00  0.00000000E+00
  0.00000000E+00  0.00000000E+00  0.00000000E+00  0.00000000E+00  0.00000000E+00
  0.00000000E+00  0.00000000E+00  0.00000000E+00  0.00000000E+00  0.00000000E+00
  0.00000000E+00  0.00000000E+00  0.00000000E+00  0.00000000E+00  0.00000000E+00
  0.00000000E+00  0.00000000E+00  0.00000000E+00  0.00000000E+00  0.00000000E+00
  0.00000000E+00  0.00000000E+00  0.00000000E+00  0.00000000E+00  0.00000000E+00
IOpCl                                      I                0
IROHF                                      I                0
Alpha Orbital Energies                     R   N=         102
 -1.01878029E+01 -1.01875389E+01 -1.01875382E+01 -1.01869875E+01 -1.01869868E+01
 -1.01867221E+01 -8.46222178E-01 -7.39779855E-01 -7.39777694E-01 -5.97464220E-01
 -5.97462550E-01 -5.18492200E-01 -4.59321430E-01 -4.38049570E-01 -4.17238881E-01
 -4.17233541E-01 -3.59328641E-01 -3.40285742E-01 -3.40268492E-01 -2.46268672E-01
 -2.46267130E-01  3.56874534E-03  3.57367565E-03  9.07342075E-02  1.44673877E-01
  1.44675740E-01  1.63833669E-01  1.81793545E-01  1.81802246E-01  1.90198735E-01
  3.02568224E-01  3.02577561E-01  3.19016639E-01  3.19034457E-01  4.74937438E-01
  5.27373906E-01  5.48795301E-01  5.50240468E-01  5.63771138E-01  5.92513035E-01
  6.01953406E-01  6.01960859E-01  6.02034128E-01  6.02036289E-01  6.26749845E-01
  6.26752750E-01  6.67515071E-01  6.67516373E-01  7.44825130E-01  8.39971691E-01
  8.39973601E-01  8.40986728E-01  8.65029147E-01  8.65031436E-01  9.38942557E-01
  9.38950949E-01  9.40590186E-01  9.57811526E-01  1.08253777E+00  1.08255056E+00
  1.14223296E+00  1.14226656E+00  1.20082782E+00  1.26188965E+00  1.39636505E+00
  1.43624571E+00  1.43626187E+00  1.48689386E+00  1.48690800E+00  1.51539653E+00
  1.51540554E+00  1.75685562E+00  1.78968303E+00  1.85717106E+00  1.89534286E+00
  1.97336774E+00  1.97338410E+00  2.06565543E+00  2.06566528E+00  2.15147636E+00
  2.15148711E+00  2.15409754E+00  2.15410991E+00  2.30925454E+00  2.30928575E+00
  2.32134901E+00  2.54559976E+00  2.54560904E+00  2.65648354E+00  2.70493234E+00
  2.70496615E+00  2.72166650E+00  2.72168770E+00  2.75992983E+00  3.01671560E+00
  3.40949535E+00  4.08493479E+00  4.11766328E+00  4.11766557E+00  4.33027647E+00
  4.33027855E+00  4.66568691E+00
Alpha MO coefficients                      R   N=       10404
  4.04952816E-01  1.97488292E-02  1.26832674E-04 -1.98578037E-05  4.47564497E-07
 -2.55468565E-03 -3.54997171E-04  5.53401413E-05 -1.30642940E-06 -3.93691393E-03
 -4.02656756E-03 -4.06450888E-03 -1.67354540E-05  5.61083062E-07  2.72140840E-07
  4.05112086E-01  1.97568245E-02  4.61566284E-05 -1.19750961E-04 -7.81392755E-07
 -2.55704272E-03 -1.28990740E-04  3.35116063E-04  2.12370742E-06 -4.01808132E-03
 -3.94829645E-03 -4.06602924E-03 -3.65304349E-05 -1.61215918E-08  1.01027468E-06
  4.04838344E-01  1.97428730E-02 -8.06587484E-05 -1.00057460E-04 -1.37804973E-06
 -2.54993109E-03  2.26197385E-04  2.80947354E-04  3.94801195E-06 -3.99082992E-03
 -3.97092476E-03 -4.06347151E-03  5.32592187E-05  9.36416498E-07  1.25773440E-06
  4.05412370E-01  1.97715620E-02 -1.26851677E-04  1.96973263E-05 -4.39886516E-07
 -2.55827891E-03  3.55364866E-04 -5.45545852E-05  1.25577239E-06 -3.94137370E-03
 -4.03107684E-03 -4.06900286E-03 -1.67552749E-05  5.74548238E-07  3.56838728E-07
  4.05655422E-01  1.97838296E-02 -4.60008063E-05  1.19745654E-04  9.46613467E-07
 -2.56371806E-03  1.27973774E-04 -3.34554307E-04 -2.78207072E-06 -4.02328421E-03
 -3.95350597E-03 -4.07129299E-03 -3.65345623E-05 -1.07538134E-07  1.09987413E-06
  4.04823529E-01  1.97420779E-02  8.09104510E-05  9.98898172E-05  1.20553026E-06
 -2.54866479E-03 -2.27761123E-04 -2.80398250E-04 -3.23895784E-06 -3.99078172E-03
 -3.97077112E-03 -4.06335140E-03  5.32650068E-05  8.38550518E-07  1.18899333E-06
 -1.92323359E-04  9.05810756E-04 -1.92384791E-04  9.06082866E-04 -1.92290706E-04
  9.05818675E-04 -1.92516236E-04  9.06649188E-04 -1.92622193E-04  9.06863381E-04
 -1.92280311E-04  9.05891616E-04  4.39526681E-01  2.18008667E-02  2.39677440E-06
  1.94086282E-04  1.77604526E-06 -4.49162269E-03  1.19697576E-04 -1.02316085E-03
 -8.61325388E-06 -4.24256484E-03 -4.25184866E-03 -4.27880355E-03 -3.18404486E-05
 -1.32061507E-07  1.33917361E-07  5.38490557E-01  2.67101540E-02 -1.08094114E-04
 -5.17990013E-06 -4.66241774E-07 -5.51349340E-03  6.18990164E-04 -1.30617142E-04
  1.43443863E-06 -5.20600027E-03 -5.20047124E-03 -5.24200521E-03 -2.35428886E-05